 Gaussian 03, Revision D.02,

 ----------------------------------------------------------------------
 #b3lyp/6-311++g(3df,2p) opt=(modredundant,maxcycle=300) freq scfcyc=40
 0 nosymmetry scf=qc
 ----------------------------------------------------------------------

 -------------------
 Title Card Required
 -------------------
 Symbolic Z-matrix:
 Charge =  0 Multiplicity = 2

 SCF Done:  E(UB+HF-LYP) =  -148.186064727     a.u. after   12 cycles
 Optimization completed.
    -- Stationary point found.
 Normal termination of Gaussian 03 at Sat Oct 20 03:47:17 2007.

 ----------------------------------------------------------------------
 #N Geom=AllCheck Guess=Read SCRF=Check GenChk UB3LYP/6-311++G(3df,2p)
 Freq
 ----------------------------------------------------------------------

 Title Card Required
 -------------------
 Redundant internal coordinates taken from checkpoint file:
 vTS_H-NCN.chk
 Charge =  0 Multiplicity = 2

 SCF Done:  E(UB+HF-LYP) =  -148.186064727     a.u. after    1 cycles
 Optimization completed.
 Normal termination of Gaussian 03 at Sat Oct 20 03:48:46 2007.

 ----------------------------------------------------------------------
 #b3lyp/6-311++g(3df,2p) opt=(modredundant,maxcycle=300) freq scfcyc=40
 0 nosymmetry scf=qc geom=check guess=read
 ----------------------------------------------------------------------

 Title Card Required
 -------------------
 Redundant internal coordinates taken from checkpoint file:
 vTS_H-NCN.chk
 Charge =  0 Multiplicity = 2

 SCF Done:  E(UB+HF-LYP) =  -148.179899835     a.u. after    6 cycles
 SCF Done:  E(UB+HF-LYP) =  -148.180029621     a.u. after    4 cycles
 SCF Done:  E(UB+HF-LYP) =  -148.180042175     a.u. after    3 cycles
 SCF Done:  E(UB+HF-LYP) =  -148.180044241     a.u. after    3 cycles
 Normal termination of Gaussian 03 at Sat Oct 20 03:51:17 2007.

 ----------------------------------------------------------------------
 #N Geom=AllCheck Guess=Read SCRF=Check GenChk UB3LYP/6-311++G(3df,2p)
 Freq
 ----------------------------------------------------------------------

 Title Card Required
 -------------------
 Redundant internal coordinates taken from checkpoint file:
 vTS_H-NCN.chk
 Charge =  0 Multiplicity = 2

 SCF Done:  E(UB+HF-LYP) =  -148.180044241     a.u. after    1 cycles
 Normal termination of Gaussian 03 at Sat Oct 20 03:52:46 2007.

 ----------------------------------------------------------------------
 #b3lyp/6-311++g(3df,2p) opt=(modredundant,maxcycle=300) freq scfcyc=40
 0 nosymmetry scf=qc geom=check guess=read
 ----------------------------------------------------------------------

 Title Card Required
 -------------------
 Redundant internal coordinates taken from checkpoint file:
 vTS_H-NCN.chk
 Charge =  0 Multiplicity = 2

 SCF Done:  E(UB+HF-LYP) =  -148.166101770     a.u. after    6 cycles
 SCF Done:  E(UB+HF-LYP) =  -148.166211163     a.u. after    4 cycles
 SCF Done:  E(UB+HF-LYP) =  -148.166219039     a.u. after    3 cycles

 ----------------------------------------------------------------------
 #N Geom=AllCheck Guess=Read SCRF=Check GenChk UB3LYP/6-311++G(3df,2p)
 Freq
 ----------------------------------------------------------------------

 Title Card Required
 -------------------
 Redundant internal coordinates taken from checkpoint file:
 vTS_H-NCN.chk
 Charge =  0 Multiplicity = 2

 ******    1 imaginary frequencies (negative Signs) ******
    1 imaginary frequencies ignored.
 SCF Done:  E(UB+HF-LYP) =  -148.045189555     a.u. after    3 cycles
 SCF Done:  E(UB+HF-LYP) =  -148.045189555     a.u. after    1 cycles
 SCF Done:  E(UB+HF-LYP) =  -148.045190179     a.u. after    3 cycles
 SCF Done:  E(UB+HF-LYP) =  -148.045190179     a.u. after    1 cycles
 SCF Done:  E(UB+HF-LYP) =  -148.045190738     a.u. after    3 cycles
 SCF Done:  E(UB+HF-LYP) =  -148.045190738     a.u. after    1 cycles
 SCF Done:  E(UB+HF-LYP) =  -148.045191700     a.u. after    3 cycles
    -- Stationary point found.
 Normal termination of Gaussian 03 at Sat Oct 20 05:28:43 2007.
 SCF Done:  E(UB+HF-LYP) =  -148.045191700     a.u. after    1 cycles
 Normal termination of Gaussian 03 at Sat Oct 20 05:29:57 2007.
 Gaussian 03:  EM64T-G03RevD.02  1-Mar-2006
 SCF Done:  E(UB+HF-LYP) =  -148.045192791     a.u. after    3 cycles
 Optimization completed.
    -- Stationary point found.
 Normal termination of Gaussian 03 at Sat Oct 20 05:30:22 2007.

                          Input orientation:
 ---------------------------------------------------------------------
 Center     Atomic     Atomic              Coordinates (Angstroms)
 Number     Number      Type              X           Y           Z
 ---------------------------------------------------------------------
    1          7             0       -1.136845   -0.453657    0.000000
    2          6             0       -0.713937    0.695110    0.000000
    3          7             0       -0.293937    1.844056    0.000000
    4          1             0        2.897996   -3.440371    0.000000
 ---------------------------------------------------------------------

 SCF Done:  E(UB+HF-LYP) =  -148.045192791     a.u. after    1 cycles

 Alpha  occ. eigenvalues --  -14.42647 -14.42618 -10.28361  -1.01847  -0.95500
 Alpha  occ. eigenvalues --   -0.49141  -0.48119  -0.48118  -0.44975  -0.35274
 Alpha  occ. eigenvalues --   -0.35274
 Alpha virt. eigenvalues --   -0.05485  -0.00541   0.02769   0.02774   0.04674
 Alpha virt. eigenvalues --    0.05248   0.05432   0.09857   0.11485   0.13133
 Alpha virt. eigenvalues --    0.13304   0.15252   0.18025   0.20935   0.20958

  Beta  occ. eigenvalues --  -14.40189 -14.40168 -10.29062  -0.97872  -0.89328
  Beta  occ. eigenvalues --   -0.45439  -0.42787  -0.42787  -0.41656  -0.32302
  Beta virt. eigenvalues --   -0.19298  -0.19296  -0.00345   0.03837   0.04923
  Beta virt. eigenvalues --    0.04974   0.06226   0.06969   0.07238   0.11500
  Beta virt. eigenvalues --    0.14085   0.14305   0.15772   0.18209   0.22236

 Mulliken atomic charges:
              1
     1  N   -0.591443
     2  C    1.186808
     3  N   -0.595512
     4  H    0.000147
 Sum of Mulliken charges=   0.00000

 Dipole moment (field-independent basis, Debye):
    X=     0.0023    Y=    -0.0069    Z=     0.0000  Tot=     0.0073
 Quadrupole moment (field-independent basis, Debye-Ang):
   XX=   -17.7738   YY=   -21.5329   ZZ=   -17.1838
   XY=    -1.6055   XZ=     0.0000   YZ=     0.0000

  Exact polarizability:  22.041   6.443  38.378   0.000   0.000  19.112
 Approx polarizability:  31.184  17.396  72.843   0.000   0.000  24.412

 ******    1 imaginary frequencies (negative Signs) ******

                     1                      2                      3
                    A'                     A'                     ?A
 Frequencies --   -13.0459                 6.0471               446.7739
 Red. masses --     1.0861                 1.5465                12.5376
 Frc consts  --     0.0001                 0.0000                 1.4745
 IR Inten    --     0.0007                 0.0001                19.1947

                     4                      5                      6
                    ?A                     A'                     A'
 Frequencies --   446.8219              1276.4330              1564.0721
 Red. masses --    12.5379                14.0029                12.5381
 Frc consts  --     1.4748                13.4421                18.0715
 IR Inten    --    19.3881                 0.0163               204.9300

 - Thermochemistry -
 -------------------
 Temperature   298.150 Kelvin.  Pressure   1.00000 Atm.
 Atom  1 has atomic number  7 and mass  14.00307

 Molecular mass:    41.01397 amu.
 Principal axes and moments of inertia in atomic units:
                           1         2         3
     EIGENVALUES --    63.46318 192.16923 255.63241
           X           -0.03132   0.99951   0.00000
           Y            0.99951   0.03132   0.00000
           Z            0.00000   0.00000   1.00000
 This molecule is an asymmetric top.
 Rotational symmetry number  1.
 Rotational temperatures (Kelvin)      1.36479     0.45072     0.33882
 Rotational constants (GHZ):          28.43761     9.39142     7.05991
    1 imaginary frequencies ignored.
 Zero-point vibrational energy      22371.1 (Joules/Mol)
                                    5.34681 (Kcal/Mol)
 Warning -- explicit consideration of   3 degrees of freedom as
           vibrations may cause significant error
 Vibrational temperatures:      8.70   642.81   642.88  1836.50  2250.35
          (Kelvin)

 Zero-point correction=                           0.008521 (Hartree/Particle)
 Thermal correction to Energy=                    0.012833
 Thermal correction to Enthalpy=                  0.013777
 Thermal correction to Gibbs Free Energy=        -0.020318
 Sum of electronic and zero-point Energies=           -148.036672
 Sum of electronic and thermal Energies=              -148.032360
 Sum of electronic and thermal Enthalpies=            -148.031416
 Sum of electronic and thermal Free Energies=         -148.065511

                     E (Thermal)             CV                S
                      KCal/Mol        Cal/Mol-Kelvin    Cal/Mol-Kelvin
 Total                    8.053             10.904             71.759
 Electronic               0.000              0.000              1.377
 Translational            0.889              2.981             37.061
 Rotational               0.889              2.981             22.660
 Vibrational              6.275              4.943             10.661
 Vibration  1             0.593              1.987              9.011
 Vibration  2             0.806              1.368              0.806
 Vibration  3             0.806              1.368              0.805

 Normal termination of Gaussian 03 at Sat Oct 20 05:31:37 2007.
